
                                 *****************
                                 * O   R   C   A *
                                 *****************

           --- An Ab Initio, DFT and Semiempirical electronic structure package ---

                  #######################################################
                  #                        -***-                        #
                  #  Department of molecular theory and spectroscopy    #
                  #              Directorship: Frank Neese              #
                  # Max Planck Institute for Chemical Energy Conversion #
                  #                  D-45470 Muelheim/Ruhr              #
                  #                       Germany                       #
                  #                                                     #
                  #                  All rights reserved                #
                  #                        -***-                        #
                  #######################################################


                         Program Version 3.0.3 - RELEASE   -


 With contributions from (in alphabetic order):
   Ute Becker             : Parallelization
   Dmytro Bykov           : SCF Hessian
   Dmitry Ganyushin       : Spin-Orbit,Spin-Spin,Magnetic field MRCI
   Andreas Hansen         : Spin unrestricted coupled pair/coupled cluster methods
   Dimitrios Liakos       : Extrapolation schemes; parallel MDCI
   Robert Izsak           : Overlap fitted RIJCOSX, COSX-SCS-MP3
   Christian Kollmar      : KDIIS, OOCD, Brueckner-CCSD(T), CCSD density
   Simone Kossmann        : Meta GGA functionals, TD-DFT gradient, OOMP2, MP2 Hessian
   Taras Petrenko         : DFT Hessian,TD-DFT gradient, ASA and ECA modules, normal mode analysis, Resonance Raman, ABS, FL, XAS/XES, NRVS
   Christoph Reimann      : Effective Core Potentials
   Michael Roemelt        : Restricted open shell CIS
   Christoph Riplinger    : Improved optimizer, TS searches, QM/MM, DLPNO-CCSD
   Barbara Sandhoefer     : DKH picture change effects
   Igor Schapiro          : Molecular dynamics
   Kantharuban Sivalingam : CASSCF convergence, NEVPT2
   Boris Wezisla          : Elementary symmetry handling
   Frank Wennmohs         : Technical directorship


 We gratefully acknowledge several colleagues who have allowed us to
 interface, adapt or use parts of their codes:
   Stefan Grimme, W. Hujo, H. Kruse, T. Risthaus : VdW corrections, initial TS optimization,
                                                   DFT functionals, gCP
   Ed Valeev                                     : LibInt (2-el integral package), F12 methods
   Garnet Chan, S. Sharma, R. Olivares           : DMRG
   Ulf Ekstrom                                   : XCFun DFT Library
   Mihaly Kallay                                 : mrcc  (arbitrary order and MRCC methods)
   Andreas Klamt, Michael Diedenhofen            : otool_cosmo (COSMO solvation model)
   Frank Weinhold                                : gennbo (NPA and NBO analysis)
   Christopher J. Cramer and Donald G. Truhlar   : smd solvation model


 Your calculation uses the libint2 library for the computation of 2-el integrals
 For citations please refer to: http://libint.valeyev.net

 This ORCA versions uses:
   CBLAS   interface :  Fast vector & matrix operations
   LAPACKE interface :  Fast linear algebra routines
   SCALAPACK package :  Parallel linear algebra routines


Your calculation utilizes the basis: cc-VDZ
Cite in your paper:
 H     : T.H. Dunning, Jr. J. Chem. Phys. 90, 1007 (1989).
 He    : D.E. Woon and T.H. Dunning, Jr. J. Chem. Phys. 100, 2975 (1994).
Li - Ne: T.H. Dunning, Jr. J. Chem. Phys. 90, 1007 (1989).
Na - Mg: D.E. Woon and T.H. Dunning, Jr.  (to be published)
Al - Ar: D.E. Woon and T.H. Dunning, Jr.  J. Chem. Phys. 98, 1358 (1993).

Your calculation utilizes polarization functions from the basis: cc-pVDZ
Cite in your paper:
 H     : T.H. Dunning, Jr. J. Chem. Phys. 90, 1007 (1989).
 He    : D.E. Woon and T.H. Dunning, Jr. J. Chem. Phys. 100, 2975 (1994).
Li - Ne: T.H. Dunning, Jr. J. Chem. Phys. 90, 1007 (1989).
Na - Mg: D.E. Woon and T.H. Dunning, Jr.  (to be published)
Al - Ar: D.E. Woon and T.H. Dunning, Jr.  J. Chem. Phys. 98, 1358 (1993).

================================================================================
                                        WARNINGS
                       Please study these warnings very carefully!
================================================================================
Now building the actual basis set

WARNING: TCut can not be >=Thresh
  ===> : TCut is set to 0.01*Thresh


INFO   : the flag for use of LIBINT has been found!

================================================================================
                                       INPUT FILE
================================================================================
NAME = Be_cc-pvdz.orca_hf.in
|  1> ! bohrs extremescf nofrozencore nopop noprintmos largeprint hf cc-pvdz
|  2> * xyz 0 1
|  3> Be  0  0  0
|  4> *
|  5> 
|  6>                          ****END OF INPUT****
================================================================================

                       ****************************
                       * Single Point Calculation *
                       ****************************

---------------------------------
CARTESIAN COORDINATES (ANGSTROEM)
---------------------------------
  Be     0.000000    0.000000    0.000000

----------------------------
CARTESIAN COORDINATES (A.U.)
----------------------------
  NO LB      ZA    FRAG    MASS        X           Y           Z
   0 Be    4.0000    0     9.012          0.000000000000000          0.000000000000000          0.000000000000000

--------------------------------
INTERNAL COORDINATES (ANGSTROEM)
--------------------------------
 Be     0   0   0   0.000000     0.000     0.000

---------------------------
INTERNAL COORDINATES (A.U.)
---------------------------
 Be     0   0   0   0.000000     0.000     0.000

---------------------
BASIS SET INFORMATION
---------------------
There are 1 groups of distinct atoms

 Group   1 Type Be  : 17s4p1d contracted to 3s2p1d pattern {881/31/1}

Atom   0Be   basis set group =>   1

-------------------------
BASIS SET IN INPUT FORMAT
-------------------------

 # Basis set for element : Be
 NewGTO Be
 S 8 
   1    2940.0000000000      0.0006795573
   2     441.2000000000      0.0052325911
   3     100.5000000000      0.0265886782
   4      28.4300000000      0.0999278996
   5       9.1690000000      0.2695264107
   6       3.1960000000      0.4511750714
   7       1.1590000000      0.2948818923
   8       0.1811000000      0.0125788052
 S 8 
   1    2940.0000000000     -0.0002515136
   2     441.2000000000     -0.0019753019
   3     100.5000000000     -0.0098785546
   4      28.4300000000     -0.0394937700
   5       9.1690000000     -0.1089483311
   6       3.1960000000     -0.2468575334
   7       1.1590000000     -0.2728513619
   8       0.1811000000      1.0853261799
 S 1 
   1       0.0589000000      1.0000000000
 P 3 
   1       3.6190000000      0.0455606790
   2       0.7110000000      0.2650676513
   3       0.1951000000      0.8035964108
 P 1 
   1       0.0601800000      1.0000000000
 D 1 
   1       0.2380000000      1.0000000000
  end;

------------------------------------------------------------------------------
                           ORCA GTO INTEGRAL CALCULATION
------------------------------------------------------------------------------

                         BASIS SET STATISTICS AND STARTUP INFO

 # of primitive gaussian shells          ...   22
 # of primitive gaussian functions       ...   34
 # of contracted shell                   ...    6
 # of contracted basis functions         ...   14
 Highest angular momentum                ...    2
 Maximum contraction depth               ...    8
 Integral package used                   ... LIBINT
 Integral threshhold            Thresh   ...  3.000e-16
 Primitive cut-off              TCut     ...  3.000e-18


                              INTEGRAL EVALUATION

 One electron integrals                  ... done
 Pre-screening matrix                    ... done
 Shell pair data                         ... done (   0.000 sec)

-------------------------------------------------------------------------------
                                 ORCA SCF
-------------------------------------------------------------------------------

------------
SCF SETTINGS
------------
Hamiltonian:
 Ab initio Hamiltonian  Method          .... Hartree-Fock(GTOs)


General Settings:
 Integral files         IntName         .... Be_cc-pvdz.orca_hf
 Hartree-Fock type      HFTyp           .... RHF
 Total Charge           Charge          ....    0
 Multiplicity           Mult            ....    1
 Number of Electrons    NEL             ....    4
 Basis Dimension        Dim             ....   14
 Nuclear Repulsion      ENuc            ....      0.0000000000 Eh

Convergence Acceleration:
 DIIS                   CNVDIIS         .... on
   Start iteration      DIISMaxIt       ....    12
   Startup error        DIISStart       ....  0.200000
   # of expansion vecs  DIISMaxEq       ....     5
   Bias factor          DIISBfac        ....   1.050
   Max. coefficient     DIISMaxC        ....  10.000
 Newton-Raphson         CNVNR           .... off
 SOSCF                  CNVSOSCF        .... on
   Start iteration      SOSCFMaxIt      ....   150
   Startup grad/error   SOSCFStart      ....  0.003300
 Level Shifting         CNVShift        .... on
   Level shift para.    LevelShift      ....    0.2500
   Turn off err/grad.   ShiftErr        ....    0.0010
 Zerner damping         CNVZerner       .... off
 Static damping         CNVDamp         .... on
   Fraction old density DampFac         ....    0.7000
   Max. Damping (<1)    DampMax         ....    0.9800
   Min. Damping (>=0)   DampMin         ....    0.0000
   Turn off err/grad.   DampErr         ....    0.1000
 Fernandez-Rico         CNVRico         .... off

SCF Procedure:
 Maximum # iterations   MaxIter         ....   125
 SCF integral mode      SCFMode         .... Direct
   Integral package                     .... LIBINT
 Reset frequeny         DirectResetFreq ....    20
 Integral Threshold     Thresh          ....  3.000e-16 Eh
 Primitive CutOff       TCut            ....  3.000e-18 Eh

Convergence Tolerance:
 Convergence Check Mode ConvCheckMode   .... All-Criteria
 Energy Change          TolE            ....  1.000e-14 Eh
 Max Density Change     TolMaxP         ....  1.000e-14
 RMS Density Change     TolRMSP         ....  1.000e-14
 Orbital Gradient       TolG            ....  1.000e-09
 Orbital Rotation angle TolX            ....  1.000e-09
 DIIS Error             TolErr          ....  1.000e-14


Diagonalization of the overlap matrix:
Smallest eigenvalue                        ... 1.674e-01
Time for diagonalization                   ...    0.000 sec
Threshold for overlap eigenvalues          ... 1.000e-08
Number of eigenvalues below threshold      ... 0
Time for construction of square roots      ...    0.000 sec
Total time needed                          ...    0.000 sec

-------------------
DFT GRID GENERATION
-------------------

General Integration Accuracy     IntAcc      ...  4.340
Radial Grid Type                 RadialGrid  ... Gauss-Chebyshev
Angular Grid (max. acc.)         AngularGrid ... Lebedev-110
Angular grid pruning method      GridPruning ... 3 (G Style)
Weight generation scheme         WeightScheme... Becke
Basis function cutoff            BFCut       ...    3.0000e-16
Integration weight cutoff        WCut        ...    1.0000e-14
Grids for H and He will be reduced by one unit

# of grid points (after initial pruning)     ...   1678 (   0.0 sec)
# of grid points (after weights+screening)   ...   1678 (   0.0 sec)
Grid point division into batches done        ...    0.0 sec
Reduced shell lists constructed in    0.0 sec

Total number of grid points                  ...     1678
Total number of batches                      ...       27
Average number of points per batch           ...       62
Average number of grid points per atom       ...     1678
Average number of shells per batch           ...     5.79 (96.43%)
Average number of basis functions per batch  ...    13.50 (96.43%)
Average number of large shells per batch     ...     5.79 (100.00%)
Average number of large basis fcns per batch ...    13.50 (100.00%)
Maximum spatial batch extension              ...  21.83, 39.91, 39.91 au
Average spatial batch extension              ...  10.49, 12.28, 14.05 au

Time for grid setup =    0.008 sec

------------------------------
INITIAL GUESS: MODEL POTENTIAL
------------------------------
Loading Hartree-Fock densities                     ... done
Calculating cut-offs                               ... done
Setting up the integral package                    ... done
Initializing the effective Hamiltonian             ... done
Starting the Coulomb interaction                   ... done (   0.0 sec)
Reading the grid                                   ... done
Mapping shells                                     ... done
Starting the XC term evaluation                    ... done (   0.0 sec)
Transforming the Hamiltonian                       ... done (   0.0 sec)
Diagonalizing the Hamiltonian                      ... done (   0.0 sec)
Back transforming the eigenvectors                 ... done (   0.0 sec)
Now organizing SCF variables                       ... done
                      ------------------
                      INITIAL GUESS DONE (   0.1 sec)
                      ------------------
----------------------
INITIAL GUESS ORBITALS
----------------------
                      0         1         2         3         4         5   
                  -3.83603  -0.20747  -0.07714  -0.07714  -0.07714   0.16600
                   2.00000   2.00000   0.00000   0.00000   0.00000   0.00000
                  --------  --------  --------  --------  --------  --------
  0Be  1s         1.007362  0.009930 -0.000000  0.000000 -0.000000  0.000000
  0Be  2s         0.025231 -0.499509 -0.000000  0.000000 -0.000000  0.000000
  0Be  3s        -0.013852 -0.569817  0.000000 -0.000000  0.000000 -0.000000
  0Be  1pz        0.000000  0.000000 -0.087218 -0.180766  0.546066  0.220547
  0Be  1px        0.000000  0.000000  0.270448  0.474565  0.200293 -1.060047
  0Be  1py        0.000000  0.000000 -0.507664  0.283871  0.012886 -0.160560
  0Be  2pz       -0.000000 -0.000000 -0.080838 -0.167542  0.506118 -0.224895
  0Be  2px       -0.000000 -0.000000  0.250663  0.439848  0.185641  1.080947
  0Be  2py       -0.000000 -0.000000 -0.470525  0.263105  0.011944  0.163726
  0Be  1dz2      -0.000000  0.000000 -0.000000  0.000000  0.000000  0.000000
  0Be  1dxz       0.000000  0.000000  0.000000  0.000000 -0.000000  0.000000
  0Be  1dyz      -0.000000  0.000000 -0.000000 -0.000000  0.000000 -0.000000
  0Be  1dx2y2    -0.000000  0.000000  0.000000 -0.000000  0.000000 -0.000000
  0Be  1dxy       0.000000  0.000000  0.000000  0.000000  0.000000  0.000000
                      6         7         8         9        10        11   
                   0.16600   0.16600   0.17183   0.44431   0.44431   0.44431
                   0.00000   0.00000   0.00000   0.00000   0.00000   0.00000
                  --------  --------  --------  --------  --------  --------
  0Be  1s         0.000000 -0.000000 -0.611752 -0.000000  0.000000  0.000000
  0Be  2s         0.000000 -0.000000 -1.674692 -0.000000  0.000000  0.000000
  0Be  3s        -0.000000  0.000000  1.643111  0.000000 -0.000000  0.000000
  0Be  1pz        0.165686  1.059258 -0.000000  0.000000  0.000000  0.000000
  0Be  1px        0.195651  0.190108 -0.000000 -0.000000 -0.000000  0.000000
  0Be  1py       -1.064138  0.199879 -0.000000  0.000000  0.000000  0.000000
  0Be  2pz       -0.168953 -1.080143  0.000000 -0.000000 -0.000000  0.000000
  0Be  2px       -0.199509 -0.193856  0.000000  0.000000  0.000000  0.000000
  0Be  2py        1.085118 -0.203820  0.000000 -0.000000 -0.000000  0.000000
  0Be  1dz2       0.000000  0.000000 -0.000000 -0.000000  0.000000  0.000000
  0Be  1dxz      -0.000000  0.000000  0.000000 -0.952291  0.305192  0.000000
  0Be  1dyz       0.000000 -0.000000  0.000000  0.305192  0.952291  0.000000
  0Be  1dx2y2     0.000000  0.000000  0.000000 -0.000000 -0.000000  0.000000
  0Be  1dxy       0.000000  0.000000  0.000000  0.000000  0.000000  1.000000
                     12        13   
                   0.44432   0.44432
                   0.00000   0.00000
                  --------  --------
  0Be  1s        -0.000000  0.000000
  0Be  2s        -0.000000  0.000000
  0Be  3s         0.000000 -0.000000
  0Be  1pz        0.000000 -0.000000
  0Be  1px        0.000000 -0.000000
  0Be  1py       -0.000000 -0.000000
  0Be  2pz        0.000000 -0.000000
  0Be  2px       -0.000000  0.000000
  0Be  2py        0.000000  0.000000
  0Be  1dz2       0.394866 -0.918739
  0Be  1dxz      -0.000000  0.000000
  0Be  1dyz      -0.000000 -0.000000
  0Be  1dx2y2    -0.918739 -0.394866
  0Be  1dxy       0.000000  0.000000
--------------
SCF ITERATIONS
--------------
               ***  Starting incremental Fock matrix formation  ***

                         ----------------------------
                         !        ITERATION     0   !
                         ----------------------------
   Total Energy        :     -14.571175171763 Eh
   Energy Change       :     -14.571175171763 Eh
   MAX-DP              :       0.010498816019
   RMS-DP              :       0.001130702638
   Actual Damping      :       0.7000
   Actual Level Shift  :       0.2500 Eh


                         ----------------------------
                         !        ITERATION     1   !
                         ----------------------------
   Total Energy        :     -14.571503481865 Eh
   Energy Change       :      -0.000328310102 Eh
   MAX-DP              :       0.008214310607
   RMS-DP              :       0.000901309586
   Actual Damping      :       0.7000
   Actual Level Shift  :       0.2500 Eh

                               ***Turning on DIIS***

                         ----------------------------
                         !        ITERATION     2   !
                         ----------------------------
   Total Energy        :     -14.571743361097 Eh
   Energy Change       :      -0.000239879232 Eh
   MAX-DP              :       0.020071368717
   RMS-DP              :       0.002242090869
   Actual Damping      :       0.0000
   Actual Level Shift  :       0.2500 Eh
   DIIS-Error          :       0.017478846441

                      *** Initiating the SOSCF procedure ***
                           *** Shutting down DIIS ***
                      *** Re-Reading the Fockian *** 
                      *** Removing any level shift *** 

                         ----------------------------
                         !        ITERATION     3   !
                         ----------------------------
   Total Energy        :     -14.572380801381 Eh
   Energy Change       :      -0.000637440284 Eh
   MAX-DP              :       0.002906680890
   RMS-DP              :       0.000301326023
   Orbital gradient    :       0.001933605925
   Orbital Rotation    :       0.001933605925
   Actual Damping      :       0.0000

               *** Restarting incremental Fock matrix formation ***

                         ----------------------------
                         !        ITERATION     4   !
                         ----------------------------
   Total Energy        :     -14.572337310563 Eh
   Energy Change       :       0.000043490818 Eh
   MAX-DP              :       0.001694644188
   RMS-DP              :       0.000157724184
   Orbital gradient    :       0.000271045416
   Orbital Rotation    :       0.000445947213
   Actual Damping      :       0.0000


                         ----------------------------
                         !        ITERATION     5   !
                         ----------------------------
   Total Energy        :     -14.572337613251 Eh
   Energy Change       :      -0.000000302688 Eh
   MAX-DP              :       0.000523765057
   RMS-DP              :       0.000048689174
   Orbital gradient    :       0.000064004378
   Orbital Rotation    :       0.000137707967
   Actual Damping      :       0.0000


                         ----------------------------
                         !        ITERATION     6   !
                         ----------------------------
   Total Energy        :     -14.572337630929 Eh
   Energy Change       :      -0.000000017679 Eh
   MAX-DP              :       0.000000774222
   RMS-DP              :       0.000000085223
   Orbital gradient    :       0.000001100941
   Orbital Rotation    :       0.000000218358
   Actual Damping      :       0.0000


                         ----------------------------
                         !        ITERATION     7   !
                         ----------------------------
   Total Energy        :     -14.572337630930 Eh
   Energy Change       :      -0.000000000001 Eh
   MAX-DP              :       0.000000052877
   RMS-DP              :       0.000000005785
   Orbital gradient    :       0.000000073104
   Orbital Rotation    :       0.000000015535
   Actual Damping      :       0.0000

                          ***Energy convergence achieved***
                           ***RMSP convergence achieved***
                           ***MAXP convergence achieved***
                       ***Gradient convergence achieved***
                    ***Orbital Rotation convergence achieved***
              ***Rediagonalizing the Fockian in SOSCF/NRSCF***

               *****************************************************
               *                     SUCCESS                       *
               *           SCF CONVERGED AFTER   8 CYCLES          *
               *****************************************************


----------------
TOTAL SCF ENERGY
----------------

Total Energy       :          -14.57233763 Eh            -396.53347 eV

Components:
Nuclear Repulsion  :            0.00000000 Eh               0.00000 eV
Electronic Energy  :          -14.57233763 Eh            -396.53347 eV

One Electron Energy:          -19.06194585 Eh            -518.70192 eV
Two Electron Energy:            4.48960822 Eh             122.16845 eV

Virial components:
Potential Energy   :          -29.14469121 Eh            -793.06737 eV
Kinetic Energy     :           14.57235358 Eh             396.53390 eV
Virial Ratio       :            1.99999891


---------------
SCF CONVERGENCE
---------------

  Last Energy change         ...    5.3291e-15  Tolerance :   1.0000e-14
  Last MAX-Density change    ...    0.0000e+00  Tolerance :   1.0000e-14
  Last RMS-Density change    ...    0.0000e+00  Tolerance :   1.0000e-14
  Last Orbital Gradient      ...    3.1325e-13  Tolerance :   1.0000e-09
  Last Orbital Rotation      ...    0.0000e+00  Tolerance :   1.0000e-09

             **** THE GBW FILE WAS UPDATED (Be_cc-pvdz.orca_hf.gbw) ****
             **** DENSITY FILE WAS UPDATED (Be_cc-pvdz.orca_hf.scfp.tmp) ****
             **** ENERGY FILE WAS UPDATED (Be_cc-pvdz.orca_hf.en.tmp) ****
----------------
ORBITAL ENERGIES
----------------

  NO   OCC          E(Eh)            E(eV) 
   0   2.0000      -4.732326      -128.7731 
   1   2.0000      -0.309039        -8.4094 
   2   0.0000       0.058259         1.5853 
   3   0.0000       0.058259         1.5853 
   4   0.0000       0.058259         1.5853 
   5   0.0000       0.298823         8.1314 
   6   0.0000       0.350180         9.5289 
   7   0.0000       0.350180         9.5289 
   8   0.0000       0.350180         9.5289 
   9   0.0000       0.650773        17.7084 
  10   0.0000       0.650773        17.7084 
  11   0.0000       0.650773        17.7084 
  12   0.0000       0.650773        17.7084 
  13   0.0000       0.650773        17.7084 
------------------
MOLECULAR ORBITALS
------------------
                      0         1         2         3         4         5   
                  -4.73233  -0.30904   0.05826   0.05826   0.05826   0.29882
                   2.00000   2.00000   0.00000   0.00000   0.00000   0.00000
                  --------  --------  --------  --------  --------  --------
  0Be  1s         1.000651 -0.000001  0.000000 -0.000000 -0.000000 -0.622748
  0Be  2s         0.000000 -0.489040  0.000000  0.000000 -0.000000 -1.677969
  0Be  3s        -0.003756 -0.580116 -0.000000  0.000000 -0.000000  1.639557
  0Be  1pz        0.000000  0.000000 -0.243790  0.100720 -0.142037 -0.000000
  0Be  1px        0.000000  0.000000 -0.057734  0.183799  0.229428 -0.000000
  0Be  1py       -0.000000  0.000000  0.164274  0.214070 -0.130157  0.000000
  0Be  2pz       -0.000000  0.000000 -0.645564  0.266710 -0.376118  0.000000
  0Be  2px       -0.000000 -0.000000 -0.152881  0.486706  0.607533  0.000000
  0Be  2py        0.000000 -0.000000  0.435002  0.566864 -0.344661 -0.000000
  0Be  1dz2      -0.000000 -0.000000 -0.000000  0.000000 -0.000000 -0.000000
  0Be  1dxz      -0.000000 -0.000000  0.000000  0.000000  0.000000  0.000000
  0Be  1dyz      -0.000000  0.000000 -0.000000  0.000000  0.000000  0.000000
  0Be  1dx2y2    -0.000000 -0.000000 -0.000000  0.000000 -0.000000  0.000000
  0Be  1dxy      -0.000000  0.000000  0.000000 -0.000000 -0.000000 -0.000000
                      6         7         8         9        10        11   
                   0.35018   0.35018   0.35018   0.65077   0.65077   0.65077
                   0.00000   0.00000   0.00000   0.00000   0.00000   0.00000
                  --------  --------  --------  --------  --------  --------
  0Be  1s        -0.000000  0.000000  0.000000 -0.000000  0.000000 -0.000000
  0Be  2s        -0.000000  0.000000  0.000000 -0.000000 -0.000000 -0.000000
  0Be  3s         0.000000 -0.000000 -0.000000  0.000000 -0.000000  0.000000
  0Be  1pz        0.554129  0.860378  0.632083 -0.000000  0.000000 -0.000000
  0Be  1px        0.408452  0.487120 -1.021136  0.000000 -0.000000  0.000000
  0Be  1py       -0.986381  0.685056 -0.067753  0.000000 -0.000000 -0.000000
  0Be  2pz       -0.438795 -0.681303 -0.500524  0.000000 -0.000000  0.000000
  0Be  2px       -0.323439 -0.385733  0.808601 -0.000000  0.000000  0.000000
  0Be  2py        0.781080 -0.542471  0.053651 -0.000000  0.000000  0.000000
  0Be  1dz2       0.000000  0.000000  0.000000 -0.120371  0.226564  0.515517
  0Be  1dxz      -0.000000  0.000000 -0.000000 -0.284461  0.591065 -0.707542
  0Be  1dyz      -0.000000  0.000000 -0.000000 -0.388825  0.596463  0.469826
  0Be  1dx2y2    -0.000000  0.000000 -0.000000  0.135157  0.110406 -0.092858
  0Be  1dxy      -0.000000  0.000000  0.000000  0.857403  0.480992  0.065332
                     12        13   
                   0.65077   0.65077
                   0.00000   0.00000
                  --------  --------
  0Be  1s         0.000000  0.000000
  0Be  2s         0.000000  0.000000
  0Be  3s        -0.000000 -0.000000
  0Be  1pz        0.000000  0.000000
  0Be  1px       -0.000000  0.000000
  0Be  1py       -0.000000 -0.000000
  0Be  2pz       -0.000000  0.000000
  0Be  2px        0.000000 -0.000000
  0Be  2py       -0.000000  0.000000
  0Be  1dz2      -0.372920 -0.727566
  0Be  1dxz      -0.204226 -0.165531
  0Be  1dyz       0.286764  0.435979
  0Be  1dx2y2     0.849481 -0.489185
  0Be  1dxy      -0.123974  0.117764


-------
DENSITY
-------
                  0          1          2          3          4          5    
      0       2.002606   0.000001  -0.007515   0.000000   0.000000  -0.000000
      1       0.000001   0.478320   0.567400  -0.000000  -0.000000  -0.000000
      2      -0.007515   0.567400   0.673097  -0.000000  -0.000000  -0.000000
      3       0.000000  -0.000000  -0.000000   0.000000   0.000000   0.000000
      4       0.000000  -0.000000  -0.000000   0.000000   0.000000   0.000000
      5      -0.000000  -0.000000  -0.000000   0.000000   0.000000   0.000000
      6      -0.000000  -0.000000  -0.000000   0.000000   0.000000   0.000000
      7      -0.000000   0.000000   0.000000  -0.000000  -0.000000   0.000000
      8       0.000000   0.000000   0.000000  -0.000000  -0.000000  -0.000000
      9      -0.000000   0.000000   0.000000  -0.000000  -0.000000  -0.000000
     10      -0.000000   0.000000   0.000000  -0.000000  -0.000000  -0.000000
     11      -0.000000  -0.000000  -0.000000   0.000000   0.000000   0.000000
     12      -0.000000   0.000000   0.000000  -0.000000  -0.000000   0.000000
     13      -0.000000  -0.000000  -0.000000  -0.000000  -0.000000   0.000000
                  6          7          8          9         10         11    
      0      -0.000000  -0.000000   0.000000  -0.000000  -0.000000  -0.000000
      1      -0.000000   0.000000   0.000000   0.000000   0.000000  -0.000000
      2      -0.000000   0.000000   0.000000   0.000000   0.000000  -0.000000
      3       0.000000  -0.000000  -0.000000  -0.000000  -0.000000   0.000000
      4       0.000000  -0.000000  -0.000000  -0.000000  -0.000000   0.000000
      5       0.000000   0.000000  -0.000000  -0.000000  -0.000000   0.000000
      6       0.000000  -0.000000  -0.000000  -0.000000  -0.000000   0.000000
      7      -0.000000   0.000000  -0.000000   0.000000   0.000000   0.000000
      8      -0.000000  -0.000000   0.000000   0.000000   0.000000  -0.000000
      9      -0.000000   0.000000   0.000000   0.000000   0.000000  -0.000000
     10      -0.000000   0.000000   0.000000   0.000000   0.000000  -0.000000
     11       0.000000   0.000000  -0.000000  -0.000000  -0.000000   0.000000
     12      -0.000000   0.000000  -0.000000   0.000000   0.000000   0.000000
     13       0.000000   0.000000  -0.000000   0.000000  -0.000000   0.000000
                  12         13    
      0      -0.000000  -0.000000
      1       0.000000  -0.000000
      2       0.000000  -0.000000
      3      -0.000000  -0.000000
      4      -0.000000  -0.000000
      5       0.000000   0.000000
      6      -0.000000   0.000000
      7       0.000000   0.000000
      8      -0.000000  -0.000000
      9       0.000000   0.000000
     10       0.000000  -0.000000
     11       0.000000   0.000000
     12       0.000000   0.000000
     13       0.000000   0.000000


-----------------------------------------------
ATOM BASIS FOR ELEMENT Be
-----------------------------------------------
  NSH[4]   = 6;
  res=GAUSS_InitGTOSTO(BG,BS,4,NSH[4]);
  // Basis function for L=s
  (*BG)[ 4][ 0].l    = ((*BS)[ 4][ 0].l=0);
  (*BG)[ 4][ 0].ng   = 9;
  (*BG)[ 4][ 0].a[ 0]=   2940.00000000; (*BG)[ 4][ 0].d[ 0]= 0.193499291467;
  (*BG)[ 4][ 0].a[ 1]=    441.20000000; (*BG)[ 4][ 0].d[ 1]= 0.359241279306;
  (*BG)[ 4][ 0].a[ 2]=    100.50000000; (*BG)[ 4][ 0].d[ 2]= 0.601885805976;
  (*BG)[ 4][ 0].a[ 3]=     28.43000000; (*BG)[ 4][ 0].d[ 3]= 0.877429459561;
  (*BG)[ 4][ 0].a[ 4]=      9.16900000; (*BG)[ 4][ 0].d[ 4]= 1.012827804309;
  (*BG)[ 4][ 0].a[ 5]=      3.19600000; (*BG)[ 4][ 0].d[ 5]= 0.769118010765;
  (*BG)[ 4][ 0].a[ 6]=      1.15900000; (*BG)[ 4][ 0].d[ 6]= 0.234911073518;
  (*BG)[ 4][ 0].a[ 7]=      0.18110000; (*BG)[ 4][ 0].d[ 7]= 0.002490411072;
  (*BG)[ 4][ 0].a[ 8]=      0.05890000; (*BG)[ 4][ 0].d[ 8]=-0.000320050291;
  // Basis function for L=s
  (*BG)[ 4][ 1].l    = ((*BS)[ 4][ 1].l=0);
  (*BG)[ 4][ 1].ng   = 16;
  (*BG)[ 4][ 1].a[ 0]=   2940.00000000; (*BG)[ 4][ 1].d[ 0]=-0.000000276987;
  (*BG)[ 4][ 1].a[ 1]=    441.20000000; (*BG)[ 4][ 1].d[ 1]=-0.000000514241;
  (*BG)[ 4][ 1].a[ 2]=    100.50000000; (*BG)[ 4][ 1].d[ 2]=-0.000000861578;
  (*BG)[ 4][ 1].a[ 3]=     28.43000000; (*BG)[ 4][ 1].d[ 3]=-0.000001256009;
  (*BG)[ 4][ 1].a[ 4]=      9.16900000; (*BG)[ 4][ 1].d[ 4]=-0.000001449827;
  (*BG)[ 4][ 1].a[ 5]=      3.19600000; (*BG)[ 4][ 1].d[ 5]=-0.000001100965;
  (*BG)[ 4][ 1].a[ 6]=      1.15900000; (*BG)[ 4][ 1].d[ 6]=-0.000000336267;
  (*BG)[ 4][ 1].a[ 7]=   2940.00000000; (*BG)[ 4][ 1].d[ 7]= 0.035000685516;
  (*BG)[ 4][ 1].a[ 8]=    441.20000000; (*BG)[ 4][ 1].d[ 8]= 0.066277282844;
  (*BG)[ 4][ 1].a[ 9]=    100.50000000; (*BG)[ 4][ 1].d[ 9]= 0.109288011743;
  (*BG)[ 4][ 1].a[10]=     28.43000000; (*BG)[ 4][ 1].d[10]= 0.169478968865;
  (*BG)[ 4][ 1].a[11]=      9.16900000; (*BG)[ 4][ 1].d[11]= 0.200085969936;
  (*BG)[ 4][ 1].a[12]=      3.19600000; (*BG)[ 4][ 1].d[12]= 0.205662939316;
  (*BG)[ 4][ 1].a[13]=      1.15900000; (*BG)[ 4][ 1].d[13]= 0.106229045230;
  (*BG)[ 4][ 1].a[14]=      0.18110000; (*BG)[ 4][ 1].d[14]=-0.105015569539;
  (*BG)[ 4][ 1].a[15]=      0.05890000; (*BG)[ 4][ 1].d[15]=-0.049432339100;
  // Basis function for L=s
  (*BG)[ 4][ 2].l    = ((*BS)[ 4][ 2].l=0);
  (*BG)[ 4][ 2].ng   = 17;
  (*BG)[ 4][ 2].a[ 0]=   2940.00000000; (*BG)[ 4][ 2].d[ 0]=-0.120422828506;
  (*BG)[ 4][ 2].a[ 1]=    441.20000000; (*BG)[ 4][ 2].d[ 1]=-0.223571107894;
  (*BG)[ 4][ 2].a[ 2]=    100.50000000; (*BG)[ 4][ 2].d[ 2]=-0.374579103849;
  (*BG)[ 4][ 2].a[ 3]=     28.43000000; (*BG)[ 4][ 2].d[ 3]=-0.546061623966;
  (*BG)[ 4][ 2].a[ 4]=      9.16900000; (*BG)[ 4][ 2].d[ 4]=-0.630325765327;
  (*BG)[ 4][ 2].a[ 5]=      3.19600000; (*BG)[ 4][ 2].d[ 5]=-0.478654808547;
  (*BG)[ 4][ 2].a[ 6]=      1.15900000; (*BG)[ 4][ 2].d[ 6]=-0.146195139558;
  (*BG)[ 4][ 2].a[ 7]=      0.18110000; (*BG)[ 4][ 2].d[ 7]=-0.001549888597;
  (*BG)[ 4][ 2].a[ 8]=   2940.00000000; (*BG)[ 4][ 2].d[ 8]= 0.120092511660;
  (*BG)[ 4][ 2].a[ 9]=    441.20000000; (*BG)[ 4][ 2].d[ 9]= 0.227407127754;
  (*BG)[ 4][ 2].a[10]=    100.50000000; (*BG)[ 4][ 2].d[10]= 0.374983279067;
  (*BG)[ 4][ 2].a[11]=     28.43000000; (*BG)[ 4][ 2].d[11]= 0.581507326050;
  (*BG)[ 4][ 2].a[12]=      9.16900000; (*BG)[ 4][ 2].d[12]= 0.686524458680;
  (*BG)[ 4][ 2].a[13]=      3.19600000; (*BG)[ 4][ 2].d[13]= 0.705659862754;
  (*BG)[ 4][ 2].a[14]=      1.15900000; (*BG)[ 4][ 2].d[14]= 0.364487514022;
  (*BG)[ 4][ 2].a[15]=      0.18110000; (*BG)[ 4][ 2].d[15]=-0.360323900039;
  (*BG)[ 4][ 2].a[16]=      0.05890000; (*BG)[ 4][ 2].d[16]= 0.139708588104;
  // Basis function for L=p
  (*BG)[ 4][ 3].l    = ((*BS)[ 4][ 3].l=1);
  (*BG)[ 4][ 3].ng   = 4;
  (*BG)[ 4][ 3].a[ 0]=      3.61900000; (*BG)[ 4][ 3].d[ 0]= 0.097115791598;
  (*BG)[ 4][ 3].a[ 1]=      0.71100000; (*BG)[ 4][ 3].d[ 1]= 0.073902251317;
  (*BG)[ 4][ 3].a[ 2]=      0.19510000; (*BG)[ 4][ 3].d[ 2]= 0.044496260380;
  (*BG)[ 4][ 3].a[ 3]=      0.06018000; (*BG)[ 4][ 3].d[ 3]= 0.033705619915;
  // Basis function for L=p
  (*BG)[ 4][ 4].l    = ((*BS)[ 4][ 4].l=1);
  (*BG)[ 4][ 4].ng   = 4;
  (*BG)[ 4][ 4].a[ 0]=      3.61900000; (*BG)[ 4][ 4].d[ 0]= 0.389920513257;
  (*BG)[ 4][ 4].a[ 1]=      0.71100000; (*BG)[ 4][ 4].d[ 1]= 0.296718003225;
  (*BG)[ 4][ 4].a[ 2]=      0.19510000; (*BG)[ 4][ 4].d[ 2]= 0.178652764912;
  (*BG)[ 4][ 4].a[ 3]=      0.06018000; (*BG)[ 4][ 4].d[ 3]=-0.040468413207;
  // Basis function for L=d
  (*BG)[ 4][ 5].l    = ((*BS)[ 4][ 5].l=2);
  (*BG)[ 4][ 5].ng   = 5;
  (*BG)[ 4][ 5].a[ 0]=      0.23800000; (*BG)[ 4][ 5].d[ 0]=-0.027829294044;
  (*BG)[ 4][ 5].a[ 1]=      0.23800000; (*BG)[ 4][ 5].d[ 1]=-0.065766213692;
  (*BG)[ 4][ 5].a[ 2]=      0.23800000; (*BG)[ 4][ 5].d[ 2]=-0.089894697325;
  (*BG)[ 4][ 5].a[ 3]=      0.23800000; (*BG)[ 4][ 5].d[ 3]= 0.031247734024;
  (*BG)[ 4][ 5].a[ 4]=      0.23800000; (*BG)[ 4][ 5].d[ 4]= 0.198227927442;
 newgto Be
 S 9
    1       2940.000000000000         0.000679999806
    2        441.200000000000         0.005235998509
    3        100.500000000000         0.026605992426
    4         28.430000000000         0.099992971535
    5          9.169000000000         0.269701923223
    6          3.196000000000         0.451468871479
    7          1.159000000000         0.295073916000
    8          0.181100000000         0.012586996417
    9          0.058900000000        -0.003755966093
 S 16
    1       2940.000000000000        -0.000000000973
    2        441.200000000000        -0.000000007495
    3        100.500000000000        -0.000000038086
    4         28.430000000000        -0.000000143136
    5          9.169000000000        -0.000000386069
    6          3.196000000000        -0.000000646262
    7          1.159000000000        -0.000000422388
    8       2940.000000000000         0.000123000240
    9        441.200000000000         0.000966001888
   10        100.500000000000         0.004831009444
   11         28.430000000000         0.019314037755
   12          9.169000000000         0.053280104152
   13          3.196000000000         0.120723235990
   14          1.159000000000         0.133435260840
   15          0.181100000000        -0.530768037547
   16          0.058900000000        -0.580115671850
 S 17
    1       2940.000000000000        -0.000423192764
    2        441.200000000000        -0.003258584286
    3        100.500000000000        -0.016558039251
    4         28.430000000000        -0.062229873668
    5          9.169000000000        -0.167846963168
    6          3.196000000000        -0.280968256129
    7          1.159000000000        -0.183637032020
    8          0.181100000000        -0.007833422538
    9       2940.000000000000         0.000422031957
   10        441.200000000000         0.003314494883
   11        100.500000000000         0.016575905568
   12         28.430000000000         0.066269310732
   13          9.169000000000         0.182811891674
   14          3.196000000000         0.414219219192
   15          1.159000000000         0.457836050403
   16          0.181100000000        -1.821143380406
   17          0.058900000000         1.639557077938
 P 4
    1          3.619000000000         0.013649414980
    2          0.711000000000         0.079410984439
    3          0.195100000000         0.240747528994
    4          0.060180000000         0.793317440361
 P 4
    1          3.619000000000         0.054802486876
    2          0.711000000000         0.318835601309
    3          0.195100000000         0.966602841066
    4          0.060180000000        -0.952490951428
 D 5
    1          0.238000000000        -0.120371155946
    2          0.238000000000        -0.284461228227
    3          0.238000000000        -0.388825121237
    4          0.238000000000         0.135157070792
    5          0.238000000000         0.857403164073
 end
-------------------------------------------
RADIAL EXPECTATION VALUES <R**-3> TO <R**3>
-------------------------------------------
   0 :     0.000000    27.721448     3.681853     0.414933     0.232865     0.165414
   1 :     0.000000     1.053068     0.522435     2.645763     8.380644    30.947925
   2 :     0.000000     0.478817     0.395315     3.829802    17.866194    92.396228
   3 :     0.109926     0.150258     0.332100     3.716659    16.091040    78.294496
   4 :     0.109926     0.150258     0.332100     3.716659    16.091040    78.294496
   5 :     0.109926     0.150258     0.332100     3.716659    16.091040    78.294496
   6 :     0.605143     0.455039     0.535270     3.071275    13.679642    73.989416
   7 :     0.605143     0.455039     0.535270     3.071275    13.679642    73.989416
   8 :     0.605143     0.455039     0.535270     3.071275    13.679642    73.989416
   9 :     0.098818     0.190400     0.415200     2.616806     7.352941   109.949842
  10 :     0.098818     0.190400     0.415200     2.616806     7.352941   109.949842
  11 :     0.098818     0.190400     0.415200     2.616806     7.352941   109.949842
  12 :     0.098818     0.190400     0.415200     2.616806     7.352941   109.949842
  13 :     0.098818     0.190400     0.415200     2.616806     7.352941   109.949842
-------
TIMINGS
-------

Total SCF time: 0 days 0 hours 0 min 0 sec 

Total time                  ....       0.836 sec
Sum of individual times     ....       0.936 sec  (112.0%)

Fock matrix formation       ....       0.830 sec  ( 99.3%)
Diagonalization             ....       0.001 sec  (  0.1%)
Density matrix formation    ....       0.000 sec  (  0.0%)
Population analysis         ....       0.000 sec  (  0.0%)
Initial guess               ....       0.095 sec  ( 11.4%)
Orbital Transformation      ....       0.000 sec  (  0.0%)
Orbital Orthonormalization  ....       0.000 sec  (  0.0%)
DIIS solution               ....       0.001 sec  (  0.1%)
SOSCF solution              ....       0.001 sec  (  0.2%)

-------------------------   --------------------
FINAL SINGLE POINT ENERGY       -14.572337630930
-------------------------   --------------------


                            ***************************************
                            *     ORCA property calculations      *
                            ***************************************

                                    ---------------------
                                    Active property flags
                                    ---------------------
   (+) Dipole Moment


------------------------------------------------------------------------------
                       ORCA ELECTRIC PROPERTIES CALCULATION
------------------------------------------------------------------------------

Dipole Moment Calculation                       ... on
Quadrupole Moment Calculation                   ... off
Polarizability Calculation                      ... off
GBWName                                         ... Be_cc-pvdz.orca_hf.gbw
Electron density file                           ... Be_cc-pvdz.orca_hf.scfp.tmp

-------------
DIPOLE MOMENT
-------------
                                X             Y             Z
Electronic contribution:      0.00000       0.00000       0.00000
Nuclear contribution   :      0.00000       0.00000       0.00000
                        -----------------------------------------
Total Dipole Moment    :      0.00000       0.00000       0.00000
                        -----------------------------------------
Magnitude (a.u.)       :      0.00000
Magnitude (Debye)      :      0.00000


Timings for individual modules:

Sum of individual times         ...        3.809 sec (=   0.063 min)
GTO integral calculation        ...        1.470 sec (=   0.025 min)  38.6 %
SCF iterations                  ...        2.339 sec (=   0.039 min)  61.4 %
                             ****ORCA TERMINATED NORMALLY****
TOTAL RUN TIME: 0 days 0 hours 0 minutes 5 seconds 100 msec
