
                                 *****************
                                 * O   R   C   A *
                                 *****************

           --- An Ab Initio, DFT and Semiempirical electronic structure package ---

                  #######################################################
                  #                        -***-                        #
                  #  Department of molecular theory and spectroscopy    #
                  #              Directorship: Frank Neese              #
                  # Max Planck Institute for Chemical Energy Conversion #
                  #                  D-45470 Muelheim/Ruhr              #
                  #                       Germany                       #
                  #                                                     #
                  #                  All rights reserved                #
                  #                        -***-                        #
                  #######################################################


                         Program Version 4.0.0 -  RELEASE  -


 With contributions from (in alphabetic order):
   Daniel Aravena         : Magnetic Properties
   Michael Atanasov       : Ab Initio Ligand Field Theory
   Ute Becker             : Parallelization
   Martin Brehm           : Molecular dynamics
   Dmytro Bykov           : SCF Hessian
   Vijay G. Chilkuri      : MRCI spin determinant printing
   Dipayan Datta          : RHF DLPNO-CCSD density
   Achintya Kumar Dutta   : EOM-CC, STEOM-CC
   Dmitry Ganyushin       : Spin-Orbit,Spin-Spin,Magnetic field MRCI
   Yang Guo               : DLPNO-NEVPT2, CIM, IAO-localization
   Andreas Hansen         : Spin unrestricted coupled pair/coupled cluster methods
   Lee Huntington         : MR-EOM, pCC
   Robert Izsak           : Overlap fitted RIJCOSX, COSX-SCS-MP3, EOM
   Christian Kollmar      : KDIIS, OOCD, Brueckner-CCSD(T), CCSD density
   Simone Kossmann        : Meta GGA functionals, TD-DFT gradient, OOMP2, MP2 Hessian
   Martin Krupicka        : AUTO-CI
   Dagmar Lenk            : GEPOL surface
   Dimitrios Liakos       : Extrapolation schemes; parallel MDCI
   Dimitrios Manganas     : ROCIS; embedding schemes
   Dimitrios Pantazis     : SARC Basis sets
   Taras Petrenko         : DFT Hessian,TD-DFT gradient, ASA, ECA, R-Raman, ABS, FL, XAS/XES, NRVS
   Peter Pinski           : DLPNO-MP2
   Christoph Reimann      : Effective Core Potentials
   Marius Retegan         : Local ZFS, SOC
   Christoph Riplinger    : Optimizer, TS searches, QM/MM, DLPNO-CCSD(T), (RO)-DLPNO pert. Triples
   Tobias Risthaus        : Range-separated hybrids, TD-DFT gradient, RPA, STAB
   Michael Roemelt        : Restricted open shell CIS
   Masaaki Saitow         : Open-shell DLPNO
   Barbara Sandhoefer     : DKH picture change effects
   Kantharuban Sivalingam : CASSCF convergence, NEVPT2, FIC-MRCI
   Georgi Stoychev        : AutoAux
   Boris Wezisla          : Elementary symmetry handling
   Frank Wennmohs         : Technical directorship


 We gratefully acknowledge several colleagues who have allowed us to
 interface, adapt or use parts of their codes:
   Stefan Grimme, W. Hujo, H. Kruse,             : VdW corrections, initial TS optimization,
                  C. Bannwarth                     DFT functionals, gCP, sTDA/sTD-DF
   Ed Valeev                                     : LibInt (2-el integral package), F12 methods
   Garnet Chan, S. Sharma, J. Yang, R. Olivares  : DMRG
   Ulf Ekstrom                                   : XCFun DFT Library
   Mihaly Kallay                                 : mrcc  (arbitrary order and MRCC methods)
   Jiri Pittner, Ondrej Demel                    : Mk-CCSD
   Frank Weinhold                                : gennbo (NPA and NBO analysis)
   Christopher J. Cramer and Donald G. Truhlar   : smd solvation model


 Your calculation uses the libint2 library for the computation of 2-el integrals
 For citations please refer to: http://libint.valeyev.net

 This ORCA versions uses:
   CBLAS   interface :  Fast vector & matrix operations
   LAPACKE interface :  Fast linear algebra routines
   SCALAPACK package :  Parallel linear algebra routines


Your calculation utilizes the basis: 3-21G
   H-Ne       : J. S. Binkley, J. A. Pople and W. J. Hehre, J. Am. Chem. Soc. 102 939 (1980).
   Na-Ar      : M. S. Gordon, J. S. Binkley, J. A. Pople, W. J. Pietro and W.J. Hehre, J. Am. Chem. Soc. 104, 2797 (1983).
   K-Ca, Ga-Kr: K. D. Dobbs and W. J. Hehre, J. Comput. Chem. 7, 359 (1986).
   Sc-Zn      : K. D. Dobbs and W. J. Hehre, J. Comput. Chem. 8, 861 (1987).
   Y-Cd       : K. D. Dobbs and W. J. Hehre, J. Comput. Chem. 8, 880 (1987).

================================================================================
                                        WARNINGS
                       Please study these warnings very carefully!
================================================================================

Warning: TCutStore was < 0. Adjusted to Thresh (uncritical)

WARNING: TCut can not be >=Thresh
  ===> : TCut is set to 0.01*Thresh

INFO   : the flag for use of LIBINT has been found!

================================================================================
                                       INPUT FILE
================================================================================
NAME = ethane_321g.orca_hf.in
|  1> ! bohrs extremescf nofrozencore nopop noprintmos largeprint hf 3-21g
|  2> * xyz 0 1
|  3> C  0.11773122601810967  2.706579152570035e-07  -0.36282169701109324
|  4> C  0.8516848710413312  -3.5297816510288056e-07  2.420736070352015
|  5> H  2.9018095114074667  -2.3439803917193614e-06  2.656181084227907
|  6> H  0.11360588178037678  -1.6647921043201028  3.3913802657097327
|  7> H  0.1136091723264787  1.6647931911034923  3.39137973979706
|  8> H  -1.9323875392990797  3.854368570695653e-06  -0.5983078420216195
|  9> H  0.8558352286352563  1.66479071436795  -1.3334507521041237
| 10> H  0.8558296748964446  -1.664793229221158  -1.3334498295870683
| 11> *
| 12> 
| 13>                          ****END OF INPUT****
================================================================================

                       ****************************
                       * Single Point Calculation *
                       ****************************

---------------------------------
CARTESIAN COORDINATES (ANGSTROEM)
---------------------------------
  C      0.062301    0.000000   -0.191997
  C      0.450692   -0.000000    1.280998
  H      1.535571   -0.000001    1.405590
  H      0.060118   -0.880970    1.794641
  H      0.060119    0.880971    1.794641
  H     -1.022575    0.000002   -0.316611
  H      0.452888    0.880969   -0.705632
  H      0.452886   -0.880971   -0.705631

----------------------------
CARTESIAN COORDINATES (A.U.)
----------------------------
  NO LB      ZA    FRAG     MASS         X           Y           Z
   0 C     6.0000    0    12.011    0.117731    0.000000   -0.362822
   1 C     6.0000    0    12.011    0.851685   -0.000000    2.420736
   2 H     1.0000    0     1.008    2.901810   -0.000002    2.656181
   3 H     1.0000    0     1.008    0.113606   -1.664792    3.391380
   4 H     1.0000    0     1.008    0.113609    1.664793    3.391380
   5 H     1.0000    0     1.008   -1.932388    0.000004   -0.598308
   6 H     1.0000    0     1.008    0.855835    1.664791   -1.333451
   7 H     1.0000    0     1.008    0.855830   -1.664793   -1.333450

--------------------------------
INTERNAL COORDINATES (ANGSTROEM)
--------------------------------
 C      0   0   0     0.000000000000     0.00000000     0.00000000
 C      1   0   0     1.523339498191     0.00000000     0.00000000
 H      2   1   0     1.092010142899   111.32263863     0.00000000
 H      2   1   3     1.092009749030   111.32324942   240.00019151
 H      2   1   3     1.092009760669   111.32323753   119.99980034
 H      1   2   3     1.092009537819   111.32379179   180.00004746
 H      1   2   3     1.092010156636   111.32261465   300.00035265
 H      1   2   3     1.092010180547   111.32260828    59.99973343

---------------------------
INTERNAL COORDINATES (A.U.)
---------------------------
 C      0   0   0     0.000000000000     0.00000000     0.00000000
 C      1   0   0     2.878694460566     0.00000000     0.00000000
 H      2   1   0     2.063600105544   111.32263863     0.00000000
 H      2   1   3     2.063599361239   111.32324942   240.00019151
 H      2   1   3     2.063599383234   111.32323753   119.99980034
 H      1   2   3     2.063598962107   111.32379179   180.00004746
 H      1   2   3     2.063600131503   111.32261465   300.00035265
 H      1   2   3     2.063600176687   111.32260828    59.99973343

---------------------
BASIS SET INFORMATION
---------------------
There are 2 groups of distinct atoms

 Group   1 Type C   : 6s3p contracted to 3s2p pattern {321/21}
 Group   2 Type H   : 3s contracted to 2s pattern {21}

Atom   0C    basis set group =>   1
Atom   1C    basis set group =>   1
Atom   2H    basis set group =>   2
Atom   3H    basis set group =>   2
Atom   4H    basis set group =>   2
Atom   5H    basis set group =>   2
Atom   6H    basis set group =>   2
Atom   7H    basis set group =>   2

-------------------------
BASIS SET IN INPUT FORMAT
-------------------------

 # Basis set for element : H 
 NewGTO H 
 S 2 
   1       5.4471780000      0.1562849807
   2       0.8245470000      0.9046908881
 S 1 
   1       0.1831920000      1.0000000000
  end;

 # Basis set for element : C 
 NewGTO C 
 S 3 
   1     172.2560000000      0.0617669074
   2      25.9109000000      0.3587940429
   3       5.5333500000      0.7007130837
 S 2 
   1       3.6649800000     -0.3958951621
   2       0.7705450000      1.2158343557
 P 2 
   1       3.6649800000      0.2364599466
   2       0.7705450000      0.8606188057
 S 1 
   1       0.1958570000      1.0000000000
 P 1 
   1       0.1958570000      1.0000000000
  end;

------------------------------------------------------------------------------
                           ORCA GTO INTEGRAL CALCULATION
------------------------------------------------------------------------------

                         BASIS SET STATISTICS AND STARTUP INFO

 # of primitive gaussian shells          ...   36
 # of primitive gaussian functions       ...   48
 # of contracted shells                  ...   22
 # of contracted basis functions         ...   30
 Highest angular momentum                ...    1
 Maximum contraction depth               ...    3
 Integral package used                   ... LIBINT
 Integral threshhold            Thresh   ...  3.000e-16
 Primitive cut-off              TCut     ...  3.000e-18


------------------------------ INTEGRAL EVALUATION ----------------------------


 * One electron integrals 
 Pre-screening matrix                    ... done
 Shell pair data                         ... done (   0.000 sec)

-------------------------------------------------------------------------------
                                 ORCA SCF
-------------------------------------------------------------------------------

------------
SCF SETTINGS
------------
Hamiltonian:
 Ab initio Hamiltonian  Method          .... Hartree-Fock(GTOs)


General Settings:
 Integral files         IntName         .... ethane_321g.orca_hf
 Hartree-Fock type      HFTyp           .... RHF
 Total Charge           Charge          ....    0
 Multiplicity           Mult            ....    1
 Number of Electrons    NEL             ....   18
 Basis Dimension        Dim             ....   30
 Nuclear Repulsion      ENuc            ....     42.2882494112 Eh

Convergence Acceleration:
 DIIS                   CNVDIIS         .... on
   Start iteration      DIISMaxIt       ....    12
   Startup error        DIISStart       ....  0.200000
   # of expansion vecs  DIISMaxEq       ....     5
   Bias factor          DIISBfac        ....   1.050
   Max. coefficient     DIISMaxC        ....  10.000
 Newton-Raphson         CNVNR           .... off
 SOSCF                  CNVSOSCF        .... on
   Start iteration      SOSCFMaxIt      ....   150
   Startup grad/error   SOSCFStart      ....  0.003300
 Level Shifting         CNVShift        .... on
   Level shift para.    LevelShift      ....    0.2500
   Turn off err/grad.   ShiftErr        ....    0.0010
 Zerner damping         CNVZerner       .... off
 Static damping         CNVDamp         .... on
   Fraction old density DampFac         ....    0.7000
   Max. Damping (<1)    DampMax         ....    0.9800
   Min. Damping (>=0)   DampMin         ....    0.0000
   Turn off err/grad.   DampErr         ....    0.1000
 Fernandez-Rico         CNVRico         .... off

SCF Procedure:
 Maximum # iterations   MaxIter         ....   125
 SCF integral mode      SCFMode         .... Direct
   Integral package                     .... LIBINT
 Reset frequeny         DirectResetFreq ....    20
 Integral Threshold     Thresh          ....  3.000e-16 Eh
 Primitive CutOff       TCut            ....  3.000e-18 Eh

Convergence Tolerance:
 Convergence Check Mode ConvCheckMode   .... All-Criteria
 Convergence forced     ConvForced      .... 0
 Energy Change          TolE            ....  1.000e-14 Eh
 Max Density Change     TolMaxP         ....  1.000e-14
 RMS Density Change     TolRMSP         ....  1.000e-14
 Orbital Gradient       TolG            ....  1.000e-09
 Orbital Rotation angle TolX            ....  1.000e-09
 DIIS Error             TolErr          ....  1.000e-14


Diagonalization of the overlap matrix:
Smallest eigenvalue                        ... 1.866e-02
Time for diagonalization                   ...    0.000 sec
Threshold for overlap eigenvalues          ... 1.000e-08
Number of eigenvalues below threshold      ... 0
Time for construction of square roots      ...    0.000 sec
Total time needed                          ...    0.000 sec

-------------------
DFT GRID GENERATION
-------------------

General Integration Accuracy     IntAcc      ...  4.340
Radial Grid Type                 RadialGrid  ... Gauss-Chebyshev
Angular Grid (max. acc.)         AngularGrid ... Lebedev-110
Angular grid pruning method      GridPruning ... 3 (G Style)
Weight generation scheme         WeightScheme... Becke
Basis function cutoff            BFCut       ...    3.0000e-16
Integration weight cutoff        WCut        ...    1.0000e-14
Grids for H and He will be reduced by one unit

# of grid points (after initial pruning)     ...   8076 (   0.0 sec)
# of grid points (after weights+screening)   ...   7742 (   0.0 sec)
nearest neighbour list constructed           ...    0.0 sec
Grid point re-assignment to atoms done       ...    0.0 sec
Grid point division into batches done        ...    0.0 sec
Reduced shell lists constructed in    0.0 sec

Total number of grid points                  ...     7742
Total number of batches                      ...      125
Average number of points per batch           ...       61
Average number of grid points per atom       ...      968
Average number of shells per batch           ...    19.98 (90.84%)
Average number of basis functions per batch  ...    27.63 (92.12%)
Average number of large shells per batch     ...    18.46 (92.37%)
Average number of large basis fcns per batch ...    25.92 (93.80%)
Maximum spatial batch extension              ...  22.36, 25.60, 20.71 au
Average spatial batch extension              ...   4.73,  4.56,  4.45 au

Time for grid setup =    0.049 sec

------------------------------
INITIAL GUESS: MODEL POTENTIAL
------------------------------
Loading Hartree-Fock densities                     ... done
Calculating cut-offs                               ... done
Setting up the integral package                    ... done
Initializing the effective Hamiltonian             ... done
Starting the Coulomb interaction                   ... done (   0.0 sec)
Reading the grid                                   ... done
Mapping shells                                     ... done
Starting the XC term evaluation                    ... done (   0.1 sec)
Transforming the Hamiltonian                       ... done (   0.0 sec)
Diagonalizing the Hamiltonian                      ... done (   0.0 sec)
Back transforming the eigenvectors                 ... done (   0.0 sec)
Now organizing SCF variables                       ... done
                      ------------------
                      INITIAL GUESS DONE (   0.2 sec)
                      ------------------
----------------------
INITIAL GUESS ORBITALS
----------------------
                      0         1         2         3         4         5   
                  -9.88569  -9.88481  -0.82107  -0.68712  -0.51704  -0.51699
                   2.00000   2.00000   2.00000   2.00000   2.00000   2.00000
                  --------  --------  --------  --------  --------  --------
  0C   1s         0.696500 -0.696249  0.165524  0.148193  0.000011 -0.000000
  0C   2s         0.085523 -0.082407 -0.168971 -0.146060 -0.000261 -0.000000
  0C   1pz       -0.000019  0.000743 -0.055985  0.122019  0.080407  0.000008
  0C   1px       -0.000005  0.000194 -0.014771  0.032215 -0.304475 -0.000032
  0C   1py        0.000000 -0.000000  0.000000 -0.000000  0.000033 -0.314986
  0C   3s        -0.079282  0.051271 -0.434904 -0.533189  0.000809  0.000000
  0C   2pz       -0.011508 -0.006016 -0.000926  0.034029  0.058257  0.000006
  0C   2px       -0.003035 -0.001577 -0.000062  0.008883 -0.219338 -0.000023
  0C   2py        0.000000  0.000000 -0.000000 -0.000000  0.000023 -0.225299
  1C   1s        -0.696518 -0.696230  0.165524 -0.148193 -0.000012 -0.000000
  1C   2s        -0.085525 -0.082405 -0.168971  0.146060  0.000263  0.000000
  1C   1pz       -0.000019 -0.000743  0.055986  0.122019  0.080424  0.000008
  1C   1px       -0.000005 -0.000194  0.014769  0.032216 -0.304469 -0.000032
  1C   1py       -0.000000  0.000000 -0.000000 -0.000000  0.000033 -0.314987
  1C   3s         0.079283  0.051269 -0.434904  0.533189 -0.000802 -0.000000
  1C   2pz       -0.011508  0.006017  0.000927  0.034029  0.058268  0.000006
  1C   2px       -0.003034  0.001577  0.000059  0.008885 -0.219333 -0.000023
  1C   2py        0.000000 -0.000000 -0.000000  0.000000  0.000023 -0.225301
  2H   1s        -0.000399  0.001334 -0.073492  0.102018 -0.160375 -0.000016
  2H   2s        -0.010718 -0.012413  0.016351  0.007793 -0.083078 -0.000009
  3H   1s        -0.000398  0.001335 -0.073473  0.101986  0.080285  0.138792
  3H   2s        -0.010721 -0.012424  0.016313  0.007263  0.041689  0.074004
  4H   1s        -0.000398  0.001335 -0.073473  0.101986  0.080313 -0.138775
  4H   2s        -0.010721 -0.012424  0.016313  0.007263  0.041704 -0.073996
  5H   1s         0.000399  0.001334 -0.073491 -0.102019  0.160378  0.000016
  5H   2s         0.010718 -0.012413  0.016350 -0.007794  0.083079  0.000008
  6H   1s         0.000398  0.001335 -0.073473 -0.101985 -0.080282 -0.138791
  6H   2s         0.010720 -0.012424  0.016313 -0.007262 -0.041687 -0.074005
  7H   1s         0.000398  0.001335 -0.073473 -0.101985 -0.080310  0.138775
  7H   2s         0.010720 -0.012424  0.016313 -0.007262 -0.041702  0.073996
                      6         7         8         9        10        11   
                  -0.47419  -0.42198  -0.42178   0.02643   0.06257   0.06323
                   2.00000   2.00000   2.00000   0.00000   0.00000   0.00000
                  --------  --------  --------  --------  --------  --------
  0C   1s        -0.007506 -0.000061 -0.000000 -0.112624  0.000000  0.004116
  0C   2s         0.012339  0.000112  0.000000  0.089639 -0.000000 -0.002311
  0C   1pz        0.380987 -0.079827 -0.000000 -0.112521 -0.000000 -0.079392
  0C   1px        0.100110  0.304754  0.000003 -0.022336 -0.000000  0.261701
  0C   1py       -0.000000 -0.000003  0.315338 -0.000000 -0.275739 -0.000000
  0C   3s        -0.016707  0.000374  0.000000  1.418397 -0.000002 -0.052381
  0C   2pz        0.248076 -0.064254 -0.000000 -0.443789 -0.000001 -0.223525
  0C   2px        0.064385  0.244102  0.000002 -0.069304 -0.000000  0.667146
  0C   2py       -0.000000 -0.000002  0.251315 -0.000000 -0.700003  0.000000
  1C   1s        -0.007507 -0.000061 -0.000000 -0.112625 -0.000000 -0.004112
  1C   2s         0.012339  0.000112  0.000000  0.089640  0.000000  0.002308
  1C   1pz       -0.380982  0.079831  0.000000  0.112517 -0.000000 -0.079403
  1C   1px       -0.100125 -0.304754 -0.000003  0.022348 -0.000001  0.261700
  1C   1py        0.000000  0.000003 -0.315338  0.000000 -0.275735 -0.000001
  1C   3s        -0.016706  0.000369  0.000000  1.418398  0.000002  0.052322
  1C   2pz       -0.248073  0.064258  0.000000  0.443780 -0.000001 -0.223557
  1C   2px       -0.064396 -0.244102 -0.000002  0.069337 -0.000003  0.667149
  1C   2py        0.000000  0.000002 -0.251314  0.000000 -0.699988 -0.000003
  2H   1s        -0.075774 -0.199610 -0.000001 -0.032340  0.000000 -0.140883
  2H   2s        -0.054862 -0.151527 -0.000001 -0.665524  0.000002 -1.033042
  3H   1s        -0.075955  0.099675  0.172920 -0.037119 -0.120527  0.071691
  3H   2s        -0.054438  0.075407  0.131460 -0.733883 -0.894615  0.514744
  4H   1s        -0.075955  0.099678 -0.172918 -0.037119  0.120527  0.071692
  4H   2s        -0.054438  0.075409 -0.131459 -0.733883  0.894613  0.514748
  5H   1s        -0.075769 -0.199609 -0.000001 -0.032335  0.000000  0.140883
  5H   2s        -0.054859 -0.151526 -0.000001 -0.665490  0.000001  1.033055
  6H   1s        -0.075958  0.099676  0.172920 -0.037121  0.120529 -0.071689
  6H   2s        -0.054440  0.075407  0.131460 -0.733900  0.894630 -0.514712
  7H   1s        -0.075957  0.099678 -0.172918 -0.037121 -0.120529 -0.071689
  7H   2s        -0.054440  0.075409 -0.131460 -0.733901 -0.894630 -0.514710
                     12        13        14        15        16        17   
                   0.07231   0.09401   0.09547   0.09864   0.53705   0.53714
                   0.00000   0.00000   0.00000   0.00000   0.00000   0.00000
                  --------  --------  --------  --------  --------  --------
  0C   1s        -0.159979 -0.000000  0.004174  0.018450  0.000000  0.000291
  0C   2s         0.090862  0.000000 -0.005231 -0.024728 -0.000000 -0.001648
  0C   1pz        0.170039  0.000001 -0.067560  0.350441 -0.000027 -0.134826
  0C   1px        0.053313 -0.000001  0.282236  0.098189  0.000099  0.495701
  0C   1py       -0.000000  0.288756  0.000001 -0.000000  0.508831 -0.000101
  0C   3s         2.052291  0.000001 -0.046763 -0.275015  0.000001  0.003517
  0C   2pz        0.810271  0.000002 -0.258215  1.105696  0.000040  0.202659
  0C   2px        0.232946 -0.000002  1.029792  0.303319 -0.000147 -0.738645
  0C   2py       -0.000001  1.065619  0.000002 -0.000002 -0.763858  0.000152
  1C   1s         0.159979 -0.000000  0.004194 -0.018449 -0.000000 -0.000291
  1C   2s        -0.090862  0.000000 -0.005246  0.024726  0.000000  0.001644
  1C   1pz        0.170032  0.000000  0.067457  0.350463 -0.000027 -0.134780
  1C   1px        0.053339  0.000000 -0.282262  0.098096  0.000099  0.495719
  1C   1py       -0.000000 -0.288760 -0.000000  0.000000  0.508824 -0.000101
  1C   3s        -2.052286  0.000001 -0.047052  0.275001 -0.000001 -0.003548
  1C   2pz        0.810250  0.000001  0.257937  1.105783  0.000040  0.202609
  1C   2px        0.233030  0.000001 -1.029857  0.302976 -0.000147 -0.738671
  1C   2py       -0.000001 -1.065632 -0.000001  0.000001 -0.763844  0.000152
  2H   1s         0.008358 -0.000000  0.097521 -0.065323  0.000084  0.424969
  2H   2s         0.429145 -0.000002  1.168227 -0.635022  0.000007  0.036654
  3H   1s         0.013815 -0.082659 -0.046463 -0.061116 -0.372203 -0.213016
  3H   2s         0.471782 -0.992954 -0.547306 -0.609867 -0.030577 -0.020144
  4H   1s         0.013815  0.082659 -0.046463 -0.061116  0.372118 -0.213163
  4H   2s         0.471784  0.992953 -0.547303 -0.609869  0.030569 -0.020156
  5H   1s        -0.008367 -0.000000  0.097500  0.065354 -0.000084 -0.424966
  5H   2s        -0.429238 -0.000005  1.167990  0.635426 -0.000007 -0.036637
  6H   1s        -0.013811 -0.082656 -0.046486  0.061102  0.372203  0.213017
  6H   2s        -0.471739 -0.992932 -0.547565  0.609678  0.030583  0.020153
  7H   1s        -0.013811  0.082657 -0.046486  0.061102 -0.372119  0.213164
  7H   2s        -0.471742  0.992937 -0.547557  0.609675 -0.030575  0.020166
                     18        19        20        21        22        23   
                   0.56723   0.60588   0.67068   0.67092   0.83616   0.90774
                   0.00000   0.00000   0.00000   0.00000   0.00000   0.00000
                  --------  --------  --------  --------  --------  --------
  0C   1s         0.002048 -0.044599  0.000000  0.000804 -0.061661  0.000000
  0C   2s        -0.022241  0.139794 -0.000000 -0.002995  0.026390 -0.000000
  0C   1pz        0.690816  0.680440  0.000005  0.177992 -0.201668  0.000002
  0C   1px        0.167292  0.179906 -0.000020 -0.718385 -0.056392 -0.000007
  0C   1py        0.000000 -0.000000  0.741256 -0.000020 -0.000000  0.585065
  0C   3s         0.563699 -0.535470 -0.000001 -0.011653  0.042599  0.000000
  0C   2pz       -0.914946 -1.520819 -0.000012 -0.432497 -0.032496 -0.000003
  0C   2px       -0.211978 -0.403531  0.000047  1.712114  0.003708  0.000010
  0C   2py       -0.000000  0.000000 -1.764216  0.000048  0.000000 -0.845786
  1C   1s         0.002048  0.044599  0.000000  0.000804 -0.061660 -0.000000
  1C   2s        -0.022240 -0.139794 -0.000000 -0.002991  0.026389  0.000000
  1C   1pz       -0.690832  0.680431 -0.000005 -0.177999  0.201663  0.000002
  1C   1px       -0.167265  0.179913  0.000020  0.718379  0.056412 -0.000007
  1C   1py       -0.000000 -0.000000 -0.741259  0.000020  0.000000  0.585066
  1C   3s         0.563694  0.535474 -0.000001 -0.011688  0.042599 -0.000000
  1C   2pz        0.914979 -1.520807  0.000012  0.432544  0.032504 -0.000003
  1C   2px        0.211926 -0.403541 -0.000047 -1.712088 -0.003726  0.000011
  1C   2py        0.000000  0.000000  1.764228 -0.000048 -0.000000 -0.845796
  2H   1s        -0.089010  0.165162  0.000003  0.127566 -0.528881  0.000008
  2H   2s        -0.108132  0.220988  0.000020  0.698629  0.272746 -0.000016
  3H   1s        -0.091087  0.158977  0.103851 -0.056527 -0.535060  0.521256
  3H   2s        -0.122405  0.223456  0.603589 -0.345928  0.269577 -1.002737
  4H   1s        -0.091087  0.158977 -0.103854 -0.056521 -0.535061 -0.521264
  4H   2s        -0.122405  0.223456 -0.603608 -0.345894  0.269577  1.002754
  5H   1s        -0.089042 -0.165167  0.000004  0.127571 -0.528852 -0.000009
  5H   2s        -0.108148 -0.220986  0.000020  0.698641  0.272708  0.000017
  6H   1s        -0.091069 -0.158976  0.103846 -0.056529 -0.535076 -0.521260
  6H   2s        -0.122392 -0.223457  0.603582 -0.345930  0.269598  1.002739
  7H   1s        -0.091069 -0.158976 -0.103849 -0.056523 -0.535076  0.521269
  7H   2s        -0.122392 -0.223458 -0.603602 -0.345895  0.269598 -1.002756
                     24        25        26        27        28        29   
                   0.90842   0.93366   0.93407   0.98223   1.49053   1.84909
                   0.00000   0.00000   0.00000   0.00000   0.00000   0.00000
                  --------  --------  --------  --------  --------  --------
  0C   1s        -0.000743 -0.000000  0.000130 -0.074930 -0.002581  0.079109
  0C   2s         0.003573  0.000000  0.002080  0.363221  1.390277  1.528628
  0C   1pz       -0.149323  0.000001 -0.056345 -0.312484  0.049862 -0.018742
  0C   1px        0.562397 -0.000005  0.219121 -0.087455  0.011608 -0.004654
  0C   1py        0.000007 -0.224116 -0.000005  0.000000  0.000000 -0.000000
  0C   3s        -0.004662 -0.000000 -0.001641 -0.319021 -2.289044 -4.138377
  0C   2pz        0.215611  0.000001 -0.010579  0.810461  0.327637 -0.884877
  0C   2px       -0.813328 -0.000001  0.038004  0.221590  0.091555 -0.233707
  0C   2py       -0.000010 -0.046338 -0.000001 -0.000000 -0.000000  0.000000
  1C   1s         0.000746  0.000000  0.000125  0.074930 -0.002581 -0.079110
  1C   2s        -0.003573 -0.000000  0.002102 -0.363221  1.390277 -1.528628
  1C   1pz       -0.149339 -0.000001  0.056378 -0.312479 -0.049863 -0.018743
  1C   1px        0.562394  0.000005 -0.219105 -0.087475 -0.011603 -0.004652
  1C   1py        0.000008  0.224120  0.000006  0.000000  0.000000 -0.000000
  1C   3s         0.004662  0.000000 -0.001658  0.319020 -2.289043  4.138378
  1C   2pz        0.215622  0.000000  0.010526  0.810463 -0.327633 -0.884880
  1C   2px       -0.813318  0.000001 -0.038025  0.221581 -0.091577 -0.233690
  1C   2py       -0.000012  0.046336  0.000001 -0.000000  0.000000  0.000000
  2H   1s        -0.599751 -0.000018  0.782100  0.491717  0.047945 -0.305966
  2H   2s         1.154373  0.000018 -0.789965 -0.634075  0.610233 -0.425545
  3H   1s         0.306713  0.675849 -0.387734  0.484476  0.049135 -0.306387
  3H   2s        -0.583366 -0.680245  0.393324 -0.618800  0.603950 -0.425201
  4H   1s         0.306699 -0.675830 -0.387766  0.484476  0.049135 -0.306387
  4H   2s        -0.583337  0.680226  0.393356 -0.618800  0.603950 -0.425201
  5H   1s         0.599765 -0.000017  0.782147 -0.491651  0.047940  0.305956
  5H   2s        -1.154377  0.000018 -0.790017  0.634016  0.610227  0.425545
  6H   1s        -0.306687  0.675845 -0.387700 -0.484508  0.049137  0.306392
  6H   2s         0.583351 -0.680242  0.393287  0.618830  0.603953  0.425201
  7H   1s        -0.306671 -0.675828 -0.387730 -0.484508  0.049137  0.306392
  7H   2s         0.583322  0.680224  0.393317  0.618830  0.603953  0.425201
--------------
SCF ITERATIONS
--------------
               ***  Starting incremental Fock matrix formation  ***

                         ----------------------------
                         !        ITERATION     0   !
                         ----------------------------
   Total Energy        :     -78.668395010796 Eh
   Energy Change       :     -78.668395010796 Eh
   MAX-DP              :       0.039780225625
   RMS-DP              :       0.005174404795
   Actual Damping      :       0.7000
   Actual Level Shift  :       0.2500 Eh


                         ----------------------------
                         !        ITERATION     1   !
                         ----------------------------
   Total Energy        :     -78.714004701914 Eh
   Energy Change       :      -0.045609691118 Eh
   MAX-DP              :       0.035257437800
   RMS-DP              :       0.004304999755
   Actual Damping      :       0.7000
   Actual Level Shift  :       0.2500 Eh

                               ***Turning on DIIS***

                         ----------------------------
                         !        ITERATION     2   !
                         ----------------------------
   Total Energy        :     -78.741120571088 Eh
   Energy Change       :      -0.027115869175 Eh
   MAX-DP              :       0.079458066144
   RMS-DP              :       0.009468332872
   Actual Damping      :       0.0000
   Actual Level Shift  :       0.2500 Eh
   DIIS-Error          :       0.079678097659


                         ----------------------------
                         !        ITERATION     3   !
                         ----------------------------
   Total Energy        :     -78.587325936569 Eh
   Energy Change       :       0.153794634519 Eh
   MAX-DP              :       0.014458936534
   RMS-DP              :       0.002090273156
   Actual Damping      :       0.0000
   Actual Level Shift  :       0.2500 Eh
   DIIS-Error          :       0.030767362698
   DIIS coefficients:
      0.25708   0.74292


                         ----------------------------
                         !        ITERATION     4   !
                         ----------------------------
   Total Energy        :     -78.772448635408 Eh
   Energy Change       :      -0.185122698839 Eh
   MAX-DP              :       0.004759138247
   RMS-DP              :       0.000445299382
   Actual Damping      :       0.0000
   Actual Level Shift  :       0.2500 Eh
   DIIS-Error          :       0.003818273777
   DIIS coefficients:
     -0.00379  -0.11322   1.11701

                      *** Initiating the SOSCF procedure ***
                           *** Shutting down DIIS ***
                      *** Re-Reading the Fockian *** 
                      *** Removing any level shift *** 

                         ----------------------------
                         !        ITERATION     5   !
                         ----------------------------
   Total Energy        :     -78.790862140750 Eh
   Energy Change       :      -0.018413505342 Eh
   MAX-DP              :       0.002264176136
   RMS-DP              :       0.000183067858
   Orbital gradient    :       0.000920758350
   Orbital Rotation    :       0.000920758350
   Actual Damping      :       0.0000

               *** Restarting incremental Fock matrix formation ***

                         ----------------------------
                         !        ITERATION     6   !
                         ----------------------------
   Total Energy        :     -78.793532000021 Eh
   Energy Change       :      -0.002669859271 Eh
   MAX-DP              :       0.000823083678
   RMS-DP              :       0.000069033446
   Orbital gradient    :       0.000274443132
   Orbital Rotation    :       0.000348030080
   Actual Damping      :       0.0000


                         ----------------------------
                         !        ITERATION     7   !
                         ----------------------------
   Total Energy        :     -78.793532461822 Eh
   Energy Change       :      -0.000000461802 Eh
   MAX-DP              :       0.000271457645
   RMS-DP              :       0.000029324497
   Orbital gradient    :       0.000095164257
   Orbital Rotation    :       0.000183356596
   Actual Damping      :       0.0000


                         ----------------------------
                         !        ITERATION     8   !
                         ----------------------------
   Total Energy        :     -78.793532512962 Eh
   Energy Change       :      -0.000000051140 Eh
   MAX-DP              :       0.000019372324
   RMS-DP              :       0.000002061832
   Orbital gradient    :       0.000012832577
   Orbital Rotation    :       0.000008793681
   Actual Damping      :       0.0000


                         ----------------------------
                         !        ITERATION     9   !
                         ----------------------------
   Total Energy        :     -78.793532514288 Eh
   Energy Change       :      -0.000000001326 Eh
   MAX-DP              :       0.000007104563
   RMS-DP              :       0.000000552430
   Orbital gradient    :       0.000004368634
   Orbital Rotation    :       0.000002418750
   Actual Damping      :       0.0000


                         ----------------------------
                         !        ITERATION    10   !
                         ----------------------------
   Total Energy        :     -78.793532514350 Eh
   Energy Change       :      -0.000000000062 Eh
   MAX-DP              :       0.000001025252
   RMS-DP              :       0.000000075736
   Orbital gradient    :       0.000000438078
   Orbital Rotation    :       0.000000473089
   Actual Damping      :       0.0000


                         ----------------------------
                         !        ITERATION    11   !
                         ----------------------------
   Total Energy        :     -78.793532514352 Eh
   Energy Change       :      -0.000000000001 Eh
   MAX-DP              :       0.000000310930
   RMS-DP              :       0.000000023554
   Orbital gradient    :       0.000000085808
   Orbital Rotation    :       0.000000137265
   Actual Damping      :       0.0000

                          ***Energy convergence achieved***

                         ----------------------------
                         !        ITERATION    12   !
                         ----------------------------
   Total Energy        :     -78.793532514352 Eh
   Energy Change       :       0.000000000000 Eh
   MAX-DP              :       0.000000020191
   RMS-DP              :       0.000000002152
   Orbital gradient    :       0.000000006363
   Orbital Rotation    :       0.000000007506
   Actual Damping      :       0.0000


                         ----------------------------
                         !        ITERATION    13   !
                         ----------------------------
   Total Energy        :     -78.793532514352 Eh
   Energy Change       :      -0.000000000000 Eh
   MAX-DP              :       0.000000002618
   RMS-DP              :       0.000000000401
   Orbital gradient    :       0.000000001410
   Orbital Rotation    :       0.000000001927
   Actual Damping      :       0.0000

                           ***RMSP convergence achieved***
                           ***MAXP convergence achieved***
                       ***Gradient convergence achieved***
                    ***Orbital Rotation convergence achieved***

                         ----------------------------
                         !        ITERATION    14   !
                         ----------------------------
   Total Energy        :     -78.793532514352 Eh
   Energy Change       :      -0.000000000000 Eh
   MAX-DP              :       0.000000000000
   RMS-DP              :       0.000000000000
   Orbital gradient    :       0.000000000991
   Orbital Rotation    :       0.000000000000
   Actual Damping      :       0.0000

                          ***Energy convergence achieved***
              ***Rediagonalizing the Fockian in SOSCF/NRSCF***

               *****************************************************
               *                     SUCCESS                       *
               *           SCF CONVERGED AFTER  15 CYCLES          *
               *****************************************************


----------------
TOTAL SCF ENERGY
----------------

Total Energy       :          -78.79353251 Eh           -2144.08102 eV

Components:
Nuclear Repulsion  :           42.28824941 Eh            1150.72177 eV
Electronic Energy  :         -121.08178193 Eh           -3294.80279 eV
One Electron Energy:         -188.47879917 Eh           -5128.76887 eV
Two Electron Energy:           67.39701724 Eh            1833.96608 eV

Virial components:
Potential Energy   :         -157.40404948 Eh           -4283.18194 eV
Kinetic Energy     :           78.61051697 Eh            2139.10092 eV
Virial Ratio       :            2.00232813


---------------
SCF CONVERGENCE
---------------

  Last Energy change         ...    0.0000e+00  Tolerance :   1.0000e-14
  Last MAX-Density change    ...    0.0000e+00  Tolerance :   1.0000e-14
  Last RMS-Density change    ...    0.0000e+00  Tolerance :   1.0000e-14
  Last Orbital Gradient      ...    9.9135e-10  Tolerance :   1.0000e-09
  Last Orbital Rotation      ...    0.0000e+00  Tolerance :   1.0000e-09

             **** THE GBW FILE WAS UPDATED (ethane_321g.orca_hf.gbw) ****
             **** DENSITY FILE WAS UPDATED (ethane_321g.orca_hf.scfp.tmp) ****
             **** ENERGY FILE WAS UPDATED (ethane_321g.orca_hf.en.tmp) ****
----------------
ORBITAL ENERGIES
----------------

  NO   OCC          E(Eh)            E(eV) 
   0   2.0000     -11.153926      -303.5138 
   1   2.0000     -11.153668      -303.5067 
   2   2.0000      -1.021042       -27.7840 
   3   2.0000      -0.842799       -22.9337 
   4   2.0000      -0.598213       -16.2782 
   5   2.0000      -0.598213       -16.2782 
   6   2.0000      -0.510102       -13.8806 
   7   2.0000      -0.482209       -13.1216 
   8   2.0000      -0.482209       -13.1216 
   9   0.0000       0.278467         7.5775 
  10   0.0000       0.335282         9.1235 
  11   0.0000       0.335282         9.1235 
  12   0.0000       0.340851         9.2750 
  13   0.0000       0.370603        10.0846 
  14   0.0000       0.370604        10.0846 
  15   0.0000       0.432701        11.7744 
  16   0.0000       0.909415        24.7464 
  17   0.0000       0.909416        24.7465 
  18   0.0000       0.966257        26.2932 
  19   0.0000       1.084323        29.5059 
  20   0.0000       1.092219        29.7208 
  21   0.0000       1.092221        29.7208 
  22   0.0000       1.287797        35.0428 
  23   0.0000       1.360790        37.0290 
  24   0.0000       1.360791        37.0290 
  25   0.0000       1.363882        37.1131 
  26   0.0000       1.363882        37.1131 
  27   0.0000       1.443343        39.2754 
  28   0.0000       1.935394        52.6647 
  29   0.0000       2.297531        62.5190 
-------
DENSITY
-------
                  0          1          2          3          4          5    
      0       2.038179   0.117415   0.000230   0.000061  -0.000000  -0.424422
      1       0.117415   0.098915   0.001956   0.000515   0.000000   0.232361
      2       0.000230   0.001956   0.275349  -0.001419   0.000000  -0.025781
      3       0.000061   0.000515  -0.001419   0.280358   0.000000  -0.006797
      4      -0.000000   0.000000   0.000000   0.000000   0.280733   0.000000
      5      -0.424422   0.232361  -0.025781  -0.006797   0.000000   0.832576
      6      -0.010917   0.003050   0.204026  -0.009977   0.000000   0.003224
      7      -0.002879   0.000804  -0.009978   0.239236   0.000000   0.000852
      8      -0.000000   0.000000   0.000000   0.000000   0.241866   0.000000
      9       0.010489  -0.018414  -0.057055  -0.015043   0.000000   0.041403
     10      -0.018414   0.015477   0.053756   0.014174  -0.000000   0.009639
     11       0.057055  -0.053756  -0.213606  -0.057275   0.000000  -0.177424
     12       0.015044  -0.014174  -0.057277  -0.011484   0.000000  -0.046784
     13      -0.000000   0.000000   0.000000   0.000000   0.003618   0.000000
     14       0.041403   0.009639   0.177425   0.046779  -0.000000  -0.141796
     15      -0.002986  -0.020841  -0.177229  -0.042062   0.000000  -0.057619
     16      -0.000787  -0.005495  -0.042065  -0.028790  -0.000000  -0.015194
     17       0.000000   0.000000   0.000000   0.000000  -0.017698  -0.000000
     18       0.005146  -0.005466  -0.018516  -0.019872   0.000000  -0.046513
     19       0.014467  -0.011584  -0.041671  -0.046626   0.000000  -0.042593
     20       0.005146  -0.005466  -0.024059   0.001151   0.012553  -0.046512
     21       0.014467  -0.011584  -0.054850   0.003357   0.029845  -0.042591
     22       0.005146  -0.005466  -0.024059   0.001151  -0.012553  -0.046512
     23       0.014467  -0.011584  -0.054850   0.003357  -0.029845  -0.042591
     24      -0.050253   0.047193  -0.016440  -0.205231   0.000000   0.158764
     25       0.020696   0.009421  -0.018587  -0.195958   0.000000   0.026300
     26      -0.050253   0.047193  -0.090729   0.076527   0.168232   0.158763
     27       0.020697   0.009420  -0.089240   0.072000   0.159994   0.026299
     28      -0.050253   0.047193  -0.090729   0.076526  -0.168232   0.158763
     29       0.020697   0.009420  -0.089240   0.071999  -0.159994   0.026299
                  6          7          8          9         10         11    
      0      -0.010917  -0.002879  -0.000000   0.010489  -0.018414   0.057055
      1       0.003050   0.000804   0.000000  -0.018414   0.015477  -0.053756
      2       0.204026  -0.009978   0.000000  -0.057055   0.053756  -0.213606
      3      -0.009977   0.239236   0.000000  -0.015043   0.014174  -0.057275
      4       0.000000   0.000000   0.241866   0.000000  -0.000000   0.000000
      5       0.003224   0.000852   0.000000   0.041403   0.009639  -0.177424
      6       0.159061  -0.013411   0.000000   0.002986   0.020841  -0.177228
      7      -0.013411   0.206390   0.000000   0.000788   0.005495  -0.042063
      8       0.000000   0.000000   0.209925  -0.000000  -0.000000   0.000000
      9       0.002986   0.000788  -0.000000   2.038179   0.117415  -0.000230
     10       0.020841   0.005495  -0.000000   0.117415   0.098915  -0.001956
     11      -0.177228  -0.042063   0.000000  -0.000230  -0.001956   0.275349
     12      -0.042065  -0.028789  -0.000000  -0.000061  -0.000516  -0.001420
     13       0.000000   0.000000  -0.017699   0.000000  -0.000000   0.000000
     14       0.057620   0.015190  -0.000000  -0.424422   0.232361   0.025781
     15      -0.143654  -0.029122   0.000000   0.010917  -0.003050   0.204026
     16      -0.029124  -0.040881  -0.000000   0.002878  -0.000804  -0.009978
     17       0.000000   0.000000  -0.033202  -0.000000  -0.000000   0.000000
     18      -0.027212  -0.035002   0.000000  -0.050253   0.047193   0.016436
     19      -0.032399  -0.053450   0.000000   0.020697   0.009420   0.018585
     20      -0.037502   0.004025   0.023303  -0.050253   0.047193   0.090730
     21      -0.049005   0.009533   0.037607   0.020697   0.009420   0.089240
     22      -0.037502   0.004025  -0.023303  -0.050253   0.047193   0.090730
     23      -0.049005   0.009533  -0.037607   0.020697   0.009420   0.089240
     24      -0.003486  -0.175306   0.000000   0.005146  -0.005466   0.018516
     25      -0.006904  -0.169253   0.000000   0.014467  -0.011584   0.041670
     26      -0.067973   0.069273   0.146033   0.005146  -0.005466   0.024059
     27      -0.068820   0.065571   0.140209   0.014467  -0.011584   0.054850
     28      -0.067973   0.069272  -0.146033   0.005146  -0.005466   0.024059
     29      -0.068820   0.065571  -0.140210   0.014467  -0.011584   0.054850
                 12         13         14         15         16         17    
      0       0.015044  -0.000000   0.041403  -0.002986  -0.000787   0.000000
      1      -0.014174   0.000000   0.009639  -0.020841  -0.005495   0.000000
      2      -0.057277   0.000000   0.177425  -0.177229  -0.042065   0.000000
      3      -0.011484   0.000000   0.046779  -0.042062  -0.028790   0.000000
      4       0.000000   0.003618  -0.000000   0.000000  -0.000000  -0.017698
      5      -0.046784   0.000000  -0.141796  -0.057619  -0.015194  -0.000000
      6      -0.042065   0.000000   0.057620  -0.143654  -0.029124   0.000000
      7      -0.028789   0.000000   0.015190  -0.029122  -0.040881   0.000000
      8      -0.000000  -0.017699  -0.000000   0.000000  -0.000000  -0.033202
      9      -0.000061   0.000000  -0.424422   0.010917   0.002878  -0.000000
     10      -0.000516  -0.000000   0.232361  -0.003050  -0.000804  -0.000000
     11      -0.001420   0.000000   0.025781   0.204026  -0.009978   0.000000
     12       0.280358   0.000000   0.006799  -0.009978   0.239235   0.000000
     13       0.000000   0.280733  -0.000000   0.000000   0.000000   0.241867
     14       0.006799  -0.000000   0.832576  -0.003225  -0.000849   0.000000
     15      -0.009978   0.000000  -0.003225   0.159061  -0.013412   0.000000
     16       0.239235   0.000000  -0.000849  -0.013412   0.206388   0.000000
     17       0.000000   0.241867   0.000000   0.000000   0.000000   0.209926
     18       0.205232  -0.000000   0.158764   0.003483   0.175307  -0.000000
     19       0.195960  -0.000000   0.026299   0.006902   0.169254  -0.000000
     20      -0.076525  -0.168232   0.158763   0.067974  -0.069271  -0.146033
     21      -0.071999  -0.159993   0.026299   0.068821  -0.065570  -0.140209
     22      -0.076525   0.168232   0.158763   0.067974  -0.069270   0.146033
     23      -0.071998   0.159993   0.026299   0.068821  -0.065570   0.140209
     24       0.019872  -0.000000  -0.046511   0.027211   0.035003  -0.000000
     25       0.046626  -0.000000  -0.042590   0.032397   0.053451  -0.000000
     26      -0.001151  -0.012552  -0.046513   0.037503  -0.004025  -0.023303
     27      -0.003357  -0.029844  -0.042593   0.049006  -0.009533  -0.037606
     28      -0.001151   0.012552  -0.046513   0.037503  -0.004025   0.023303
     29      -0.003357   0.029844  -0.042593   0.049006  -0.009532   0.037606
                 18         19         20         21         22         23    
      0       0.005146   0.014467   0.005146   0.014467   0.005146   0.014467
      1      -0.005466  -0.011584  -0.005466  -0.011584  -0.005466  -0.011584
      2      -0.018516  -0.041671  -0.024059  -0.054850  -0.024059  -0.054850
      3      -0.019872  -0.046626   0.001151   0.003357   0.001151   0.003357
      4       0.000000   0.000000   0.012553   0.029845  -0.012553  -0.029845
      5      -0.046513  -0.042593  -0.046512  -0.042591  -0.046512  -0.042591
      6      -0.027212  -0.032399  -0.037502  -0.049005  -0.037502  -0.049005
      7      -0.035002  -0.053450   0.004025   0.009533   0.004025   0.009533
      8       0.000000   0.000000   0.023303   0.037607  -0.023303  -0.037607
      9      -0.050253   0.020697  -0.050253   0.020697  -0.050253   0.020697
     10       0.047193   0.009420   0.047193   0.009420   0.047193   0.009420
     11       0.016436   0.018585   0.090730   0.089240   0.090730   0.089240
     12       0.205232   0.195960  -0.076525  -0.071999  -0.076525  -0.071998
     13      -0.000000  -0.000000  -0.168232  -0.159993   0.168232   0.159993
     14       0.158764   0.026299   0.158763   0.026299   0.158763   0.026299
     15       0.003483   0.006902   0.067974   0.068821   0.067974   0.068821
     16       0.175307   0.169254  -0.069271  -0.065570  -0.069270  -0.065570
     17      -0.000000  -0.000000  -0.146033  -0.140209   0.146033   0.140209
     18       0.181400   0.151193  -0.021775  -0.043910  -0.021775  -0.043910
     19       0.151193   0.144242  -0.043910  -0.045378  -0.043910  -0.045378
     20      -0.021775  -0.043910   0.181400   0.151192  -0.021775  -0.043910
     21      -0.043910  -0.045378   0.151192   0.144241  -0.043910  -0.045377
     22      -0.021775  -0.043910  -0.021775  -0.043910   0.181400   0.151192
     23      -0.043910  -0.045378  -0.043910  -0.045377   0.151192   0.144241
     24       0.023497   0.040744  -0.009211  -0.011847  -0.009211  -0.011847
     25       0.040744   0.059094  -0.011847  -0.011385  -0.011847  -0.011385
     26      -0.009211  -0.011847   0.023497   0.040744  -0.009211  -0.011847
     27      -0.011847  -0.011385   0.040744   0.059094  -0.011847  -0.011385
     28      -0.009211  -0.011847  -0.009211  -0.011847   0.023497   0.040744
     29      -0.011847  -0.011385  -0.011847  -0.011385   0.040744   0.059094
                 24         25         26         27         28         29    
      0      -0.050253   0.020696  -0.050253   0.020697  -0.050253   0.020697
      1       0.047193   0.009421   0.047193   0.009420   0.047193   0.009420
      2      -0.016440  -0.018587  -0.090729  -0.089240  -0.090729  -0.089240
      3      -0.205231  -0.195958   0.076527   0.072000   0.076526   0.071999
      4       0.000000   0.000000   0.168232   0.159994  -0.168232  -0.159994
      5       0.158764   0.026300   0.158763   0.026299   0.158763   0.026299
      6      -0.003486  -0.006904  -0.067973  -0.068820  -0.067973  -0.068820
      7      -0.175306  -0.169253   0.069273   0.065571   0.069272   0.065571
      8       0.000000   0.000000   0.146033   0.140209  -0.146033  -0.140210
      9       0.005146   0.014467   0.005146   0.014467   0.005146   0.014467
     10      -0.005466  -0.011584  -0.005466  -0.011584  -0.005466  -0.011584
     11       0.018516   0.041670   0.024059   0.054850   0.024059   0.054850
     12       0.019872   0.046626  -0.001151  -0.003357  -0.001151  -0.003357
     13      -0.000000  -0.000000  -0.012552  -0.029844   0.012552   0.029844
     14      -0.046511  -0.042590  -0.046513  -0.042593  -0.046513  -0.042593
     15       0.027211   0.032397   0.037503   0.049006   0.037503   0.049006
     16       0.035003   0.053451  -0.004025  -0.009533  -0.004025  -0.009532
     17      -0.000000  -0.000000  -0.023303  -0.037606   0.023303   0.037606
     18       0.023497   0.040744  -0.009211  -0.011847  -0.009211  -0.011847
     19       0.040744   0.059094  -0.011847  -0.011385  -0.011847  -0.011385
     20      -0.009211  -0.011847   0.023497   0.040744  -0.009211  -0.011847
     21      -0.011847  -0.011385   0.040744   0.059094  -0.011847  -0.011385
     22      -0.009211  -0.011847  -0.009211  -0.011847   0.023497   0.040744
     23      -0.011847  -0.011385  -0.011847  -0.011385   0.040744   0.059094
     24       0.181400   0.151192  -0.021775  -0.043910  -0.021775  -0.043910
     25       0.151192   0.144240  -0.043910  -0.045377  -0.043910  -0.045377
     26      -0.021775  -0.043910   0.181400   0.151193  -0.021775  -0.043910
     27      -0.043910  -0.045377   0.151193   0.144242  -0.043910  -0.045378
     28      -0.021775  -0.043910  -0.021775  -0.043910   0.181400   0.151193
     29      -0.043910  -0.045377  -0.043910  -0.045378   0.151193   0.144242


-------
TIMINGS
-------

Total SCF time: 0 days 0 hours 0 min 1 sec 

Total time                  ....       1.890 sec
Sum of individual times     ....       1.886 sec  ( 99.8%)

Fock matrix formation       ....       1.689 sec  ( 89.3%)
Diagonalization             ....       0.002 sec  (  0.1%)
Density matrix formation    ....       0.000 sec  (  0.0%)
Population analysis         ....       0.000 sec  (  0.0%)
Initial guess               ....       0.144 sec  (  7.6%)
Orbital Transformation      ....       0.000 sec  (  0.0%)
Orbital Orthonormalization  ....       0.000 sec  (  0.0%)
DIIS solution               ....       0.001 sec  (  0.0%)
SOSCF solution              ....       0.001 sec  (  0.1%)

-------------------------   --------------------
FINAL SINGLE POINT ENERGY       -78.793532514352
-------------------------   --------------------


                            ***************************************
                            *     ORCA property calculations      *
                            ***************************************

                                    ---------------------
                                    Active property flags
                                    ---------------------
   (+) Dipole Moment


------------------------------------------------------------------------------
                       ORCA ELECTRIC PROPERTIES CALCULATION
------------------------------------------------------------------------------

Dipole Moment Calculation                       ... on
Quadrupole Moment Calculation                   ... off
Polarizability Calculation                      ... off
GBWName                                         ... ethane_321g.orca_hf.gbw
Electron density file                           ... ethane_321g.orca_hf.scfp.tmp

-------------
DIPOLE MOMENT
-------------
                                X             Y             Z
Electronic contribution:     -0.00002      -0.00000       0.00000
Nuclear contribution   :      0.00002       0.00000      -0.00000
                        -----------------------------------------
Total Dipole Moment    :      0.00000       0.00000      -0.00000
                        -----------------------------------------
Magnitude (a.u.)       :      0.00000
Magnitude (Debye)      :      0.00001


Timings for individual modules:

Sum of individual times         ...        2.073 sec (=   0.035 min)
GTO integral calculation        ...        0.174 sec (=   0.003 min)   8.4 %
SCF iterations                  ...        1.899 sec (=   0.032 min)  91.6 %
                             ****ORCA TERMINATED NORMALLY****
TOTAL RUN TIME: 0 days 0 hours 0 minutes 2 seconds 163 msec
